
#(C) 2018 by FIZ Karlsruhe - Leibniz Institute for Information Infrastructure.  All rights reserved.
data_67121-ICSD
_database_code_ICSD 67121
_audit_creation_date 1990-12-27
_audit_update_record 2006-04-01
_chemical_name_systematic 'Silicon oxide - alpha'
_chemical_formula_structural 'Si O2'
_chemical_formula_sum 'O2 Si1'
_chemical_name_structure_type Quartz,low
_chemical_name_mineral 'Quartz low'
_exptl_crystal_density_diffrn 2.65
_publ_section_title
'High-pressure crystal chemistry and amorphization of alpha quartz'
loop_
_citation_id
_citation_journal_full
_citation_year
_citation_journal_volume
_citation_page_first
_citation_page_last
_citation_journal_id_ASTM
primary 'Solid State Communications' 1989 72 507 511 SSCOA4
loop_
_publ_author_name
'Hazen, R.M.'
'Finger, L.W.'
'Hemley, R.J.'
'Mao, H.K.'
_cell_length_a 4.914(1)
_cell_length_b 4.914(1)
_cell_length_c 5.406(1)
_cell_angle_alpha 90.
_cell_angle_beta 90.
_cell_angle_gamma 120.
_cell_volume 113.05
_cell_formula_units_Z 3
_symmetry_space_group_name_H-M 'P 31 2 1'
_symmetry_Int_Tables_number 152
_refine_ls_R_factor_all 0.038
loop_
_symmetry_equiv_pos_site_id
_symmetry_equiv_pos_as_xyz
1 'x-y, -y, -z+2/3'
2 '-x, -x+y, -z+1/3'
3 'y, x, -z'
4 '-x+y, -x, z+2/3'
5 '-y, x-y, z+1/3'
6 'x, y, z'
loop_
_atom_type_symbol
_atom_type_oxidation_number
Si4+ 4
O2- -2
loop_
_atom_site_label
_atom_site_type_symbol
_atom_site_symmetry_multiplicity
_atom_site_Wyckoff_symbol
_atom_site_fract_x
_atom_site_fract_y
_atom_site_fract_z
_atom_site_B_iso_or_equiv
_atom_site_occupancy
_atom_site_attached_hydrogens
Si1 Si4+ 3 a 0.4699(2) 0 0.3333 0.51(2) 1. 0
O1 O2- 6 c 0.4130(5) 0.2668(5) 0.2140(3) 0.86(4) 1. 0
#End of TTdata_67121-ICSD